<?xml version="1.0" encoding="UTF-8"?>

<!-- generated on 2023-12-06 01:18:12 by Eclipse SUMO GUI Version 1.18.0
<configuration xmlns:xsi="http://www.w3.org/2001/XMLSchema-instance" xsi:noNamespaceSchemaLocation="http://sumo.dlr.de/xsd/sumoConfiguration.xsd">

    <input>
        <net-file value="maps/city1.net.xml"/>
        <route-files value="maps/city1.rou.xml"/>
    </input>

    <output>
        <tripinfo-output value="tripinfo.xml"/>
    </output>

    <time>
        <begin value="0"/>
        <end value="200"/>
    </time>

    <report>
        <verbose value="true"/>
        <no-step-log value="true"/>
    </report>

    <traci_server>
        <remote-port value="64203"/>
    </traci_server>

</configuration>
-->

<tripinfos xmlns:xsi="http://www.w3.org/2001/XMLSchema-instance" xsi:noNamespaceSchemaLocation="http://sumo.dlr.de/xsd/tripinfo_file.xsd">
    <tripinfo id="13" depart="13.00" departLane="-gneE14_0" departPos="5.10" departSpeed="0.00" departDelay="0.00" arrival="23.00" arrivalLane="-gneE14_0" arrivalPos="89.60" arrivalSpeed="14.27" duration="10.00" routeLength="84.50" waitingTime="0.00" waitingCount="0" stopTime="0.00" timeLoss="3.61" rerouteNo="0" devices="tripinfo_13" vType="DEFAULT_VEHTYPE" speedFactor="1.09" vaporized=""/>
    <tripinfo id="8" depart="8.00" departLane="-gneE26_0" departPos="5.10" departSpeed="0.00" departDelay="0.00" arrival="76.00" arrivalLane="gneE14_0" arrivalPos="89.60" arrivalSpeed="13.64" duration="68.00" routeLength="391.59" waitingTime="28.00" waitingCount="1" stopTime="0.00" timeLoss="39.72" rerouteNo="0" devices="tripinfo_8" vType="DEFAULT_VEHTYPE" speedFactor="1.05" vaporized=""/>
    <tripinfo id="20" depart="20.00" departLane="gneE22_0" departPos="5.10" departSpeed="0.00" departDelay="0.00" arrival="76.00" arrivalLane="-gneE10_0" arrivalPos="96.80" arrivalSpeed="7.35" duration="56.00" routeLength="579.33" waitingTime="0.00" waitingCount="0" stopTime="0.00" timeLoss="9.92" rerouteNo="0" devices="tripinfo_20" vType="DEFAULT_VEHTYPE" speedFactor="0.93" vaporized=""/>
    <tripinfo id="52" depart="52.00" departLane="-gneE29_0" departPos="5.10" departSpeed="0.00" departDelay="0.00" arrival="89.00" arrivalLane="gneE21_0" arrivalPos="87.62" arrivalSpeed="15.14" duration="37.00" routeLength="413.15" waitingTime="0.00" waitingCount="0" stopTime="0.00" timeLoss="8.94" rerouteNo="0" devices="tripinfo_52" vType="DEFAULT_VEHTYPE" speedFactor="1.10" vaporized=""/>
    <tripinfo id="33" depart="33.00" departLane="-gneE26_0" departPos="5.10" departSpeed="0.00" departDelay="0.00" arrival="90.00" arrivalLane="-gneE10_0" arrivalPos="96.80" arrivalSpeed="10.31" duration="57.00" routeLength="491.90" waitingTime="4.00" waitingCount="1" stopTime="0.00" timeLoss="14.01" rerouteNo="0" devices="tripinfo_33" vType="DEFAULT_VEHTYPE" speedFactor="0.83" vaporized=""/>
    <tripinfo id="47" depart="50.00" departLane="-gneE13_0" departPos="5.10" departSpeed="0.00" departDelay="3.00" arrival="91.00" arrivalLane="-gneE38_0" arrivalPos="296.80" arrivalSpeed="15.78" duration="41.00" routeLength="490.87" waitingTime="0.00" waitingCount="0" stopTime="0.00" timeLoss="9.78" rerouteNo="0" devices="tripinfo_47" vType="DEFAULT_VEHTYPE" speedFactor="1.17" vaporized=""/>
    <tripinfo id="90" depart="90.00" departLane="gneE23_0" departPos="5.10" departSpeed="0.00" departDelay="0.00" arrival="100.00" arrivalLane="gneE23_0" arrivalPos="89.60" arrivalSpeed="14.12" duration="10.00" routeLength="84.50" waitingTime="0.00" waitingCount="0" stopTime="0.00" timeLoss="3.07" rerouteNo="0" devices="tripinfo_90" vType="DEFAULT_VEHTYPE" speedFactor="1.02" vaporized=""/>
    <tripinfo id="27" depart="27.00" departLane="gneE19_0" departPos="5.10" departSpeed="0.00" departDelay="0.00" arrival="101.00" arrivalLane="gneE17_0" arrivalPos="92.80" arrivalSpeed="14.84" duration="74.00" routeLength="585.39" waitingTime="17.00" waitingCount="1" stopTime="0.00" timeLoss="35.05" rerouteNo="0" devices="tripinfo_27" vType="DEFAULT_VEHTYPE" speedFactor="1.16" vaporized=""/>
    <tripinfo id="53" depart="53.00" departLane="-gneE18_0" departPos="5.10" departSpeed="0.00" departDelay="0.00" arrival="111.00" arrivalLane="-gneE5_0" arrivalPos="85.60" arrivalSpeed="7.10" duration="58.00" routeLength="275.23" waitingTime="17.00" waitingCount="1" stopTime="0.00" timeLoss="34.77" rerouteNo="0" devices="tripinfo_53" vType="DEFAULT_VEHTYPE" speedFactor="0.90" vaporized=""/>
    <tripinfo id="73" depart="73.00" departLane="gneE10_0" departPos="5.10" departSpeed="0.00" departDelay="0.00" arrival="114.00" arrivalLane="gneE26_0" arrivalPos="92.80" arrivalSpeed="13.32" duration="41.00" routeLength="491.90" waitingTime="0.00" waitingCount="0" stopTime="0.00" timeLoss="4.62" rerouteNo="0" devices="tripinfo_73" vType="DEFAULT_VEHTYPE" speedFactor="1.00" vaporized=""/>
    <tripinfo id="35" depart="35.00" departLane="-gneE25_0" departPos="5.10" departSpeed="0.00" departDelay="0.00" arrival="116.00" arrivalLane="gneE6_0" arrivalPos="92.80" arrivalSpeed="12.00" duration="81.00" routeLength="477.06" waitingTime="26.00" waitingCount="1" stopTime="0.00" timeLoss="39.97" rerouteNo="0" devices="tripinfo_35" vType="DEFAULT_VEHTYPE" speedFactor="0.87" vaporized=""/>
    <tripinfo id="9" depart="9.00" departLane="gneE3_0" departPos="5.10" departSpeed="0.00" departDelay="0.00" arrival="119.00" arrivalLane="-gneE0_0" arrivalPos="92.80" arrivalSpeed="12.02" duration="110.00" routeLength="671.38" waitingTime="32.00" waitingCount="2" stopTime="0.00" timeLoss="51.57" rerouteNo="0" devices="tripinfo_9" vType="DEFAULT_VEHTYPE" speedFactor="0.89" vaporized=""/>
    <tripinfo id="17" depart="17.00" departLane="-gneE36_0" departPos="5.10" departSpeed="0.00" departDelay="0.00" arrival="119.00" arrivalLane="gneE12_0" arrivalPos="85.60" arrivalSpeed="8.26" duration="102.00" routeLength="687.49" waitingTime="27.00" waitingCount="3" stopTime="0.00" timeLoss="57.02" rerouteNo="0" devices="tripinfo_17" vType="DEFAULT_VEHTYPE" speedFactor="1.12" vaporized=""/>
    <tripinfo id="30" depart="30.00" departLane="gneE9_0" departPos="5.10" departSpeed="0.00" departDelay="0.00" arrival="119.00" arrivalLane="gneE2_0" arrivalPos="185.60" arrivalSpeed="7.73" duration="89.00" routeLength="379.13" waitingTime="40.00" waitingCount="2" stopTime="0.00" timeLoss="60.14" rerouteNo="0" devices="tripinfo_30" vType="DEFAULT_VEHTYPE" speedFactor="0.97" vaporized=""/>
    <tripinfo id="4" depart="4.00" departLane="-gneE5_0" departPos="5.10" departSpeed="0.00" departDelay="0.00" arrival="123.00" arrivalLane="-gneE1_0" arrivalPos="85.60" arrivalSpeed="12.78" duration="119.00" routeLength="374.92" waitingTime="81.00" waitingCount="1" stopTime="0.00" timeLoss="91.15" rerouteNo="0" devices="tripinfo_4" vType="DEFAULT_VEHTYPE" speedFactor="1.01" vaporized=""/>
    <tripinfo id="11" depart="11.00" departLane="-gneE32_0" departPos="5.10" departSpeed="0.00" departDelay="0.00" arrival="125.00" arrivalLane="-gneE19_0" arrivalPos="92.80" arrivalSpeed="11.86" duration="114.00" routeLength="1010.21" waitingTime="4.00" waitingCount="1" stopTime="0.00" timeLoss="25.95" rerouteNo="0" devices="tripinfo_11" vType="DEFAULT_VEHTYPE" speedFactor="0.86" vaporized=""/>
    <tripinfo id="25" depart="25.00" departLane="-gneE34_0" departPos="5.10" departSpeed="0.00" departDelay="0.00" arrival="125.00" arrivalLane="-gneE22_0" arrivalPos="85.60" arrivalSpeed="9.74" duration="100.00" routeLength="580.18" waitingTime="31.00" waitingCount="2" stopTime="0.00" timeLoss="53.54" rerouteNo="0" devices="tripinfo_25" vType="DEFAULT_VEHTYPE" speedFactor="0.94" vaporized=""/>
    <tripinfo id="19" depart="19.00" departLane="gneE35_0" departPos="5.10" departSpeed="0.00" departDelay="0.00" arrival="126.00" arrivalLane="gneE13_0" arrivalPos="92.80" arrivalSpeed="12.61" duration="107.00" routeLength="789.32" waitingTime="27.00" waitingCount="2" stopTime="0.00" timeLoss="48.10" rerouteNo="0" devices="tripinfo_19" vType="DEFAULT_VEHTYPE" speedFactor="0.99" vaporized=""/>
    <tripinfo id="85" depart="85.00" departLane="gneE5_0" departPos="5.10" departSpeed="0.00" departDelay="0.00" arrival="132.00" arrivalLane="gneE13_0" arrivalPos="92.80" arrivalSpeed="12.82" duration="47.00" routeLength="287.49" waitingTime="13.00" waitingCount="1" stopTime="0.00" timeLoss="23.19" rerouteNo="0" devices="tripinfo_85" vType="DEFAULT_VEHTYPE" speedFactor="0.94" vaporized=""/>
    <tripinfo id="76" depart="76.00" departLane="-gneE6_0" departPos="5.10" departSpeed="0.00" departDelay="0.00" arrival="134.00" arrivalLane="gneE10_0" arrivalPos="96.80" arrivalSpeed="15.81" duration="58.00" routeLength="596.03" waitingTime="0.00" waitingCount="0" stopTime="0.00" timeLoss="18.77" rerouteNo="0" devices="tripinfo_76" vType="DEFAULT_VEHTYPE" speedFactor="1.14" vaporized=""/>
    <tripinfo id="5" depart="5.00" departLane="-gneE25_0" departPos="5.10" departSpeed="0.00" departDelay="0.00" arrival="137.00" arrivalLane="gneE1_0" arrivalPos="85.60" arrivalSpeed="8.96" duration="132.00" routeLength="774.81" waitingTime="59.00" waitingCount="1" stopTime="0.00" timeLoss="78.09" rerouteNo="0" devices="tripinfo_5" vType="DEFAULT_VEHTYPE" speedFactor="1.08" vaporized=""/>
    <tripinfo id="38" depart="38.00" departLane="gneE4_0" departPos="5.10" departSpeed="0.00" departDelay="0.00" arrival="137.00" arrivalLane="-gneE7_0" arrivalPos="92.80" arrivalSpeed="12.41" duration="99.00" routeLength="587.17" waitingTime="28.00" waitingCount="2" stopTime="0.00" timeLoss="50.46" rerouteNo="0" devices="tripinfo_38" vType="DEFAULT_VEHTYPE" speedFactor="0.92" vaporized=""/>
    <tripinfo id="26" depart="26.00" departLane="-gneE29_0" departPos="5.10" departSpeed="0.00" departDelay="0.00" arrival="139.00" arrivalLane="gneE5_0" arrivalPos="85.60" arrivalSpeed="12.21" duration="113.00" routeLength="707.67" waitingTime="38.00" waitingCount="2" stopTime="0.00" timeLoss="55.90" rerouteNo="0" devices="tripinfo_26" vType="DEFAULT_VEHTYPE" speedFactor="0.94" vaporized=""/>
    <tripinfo id="56" depart="56.00" departLane="gneE0_0" departPos="5.10" departSpeed="0.00" departDelay="0.00" arrival="140.00" arrivalLane="-gneE20_0" arrivalPos="92.80" arrivalSpeed="14.96" duration="84.00" routeLength="284.16" waitingTime="52.00" waitingCount="1" stopTime="0.00" timeLoss="63.21" rerouteNo="0" devices="tripinfo_56" vType="DEFAULT_VEHTYPE" speedFactor="1.09" vaporized=""/>
    <tripinfo id="2" depart="2.00" departLane="gneE24_0" departPos="5.10" departSpeed="0.00" departDelay="0.00" arrival="146.00" arrivalLane="gneE23_0" arrivalPos="89.60" arrivalSpeed="12.29" duration="144.00" routeLength="768.59" waitingTime="55.00" waitingCount="3" stopTime="0.00" timeLoss="83.31" rerouteNo="0" devices="tripinfo_2" vType="DEFAULT_VEHTYPE" speedFactor="0.94" vaporized=""/>
    <tripinfo id="10" depart="12.00" departLane="gneE3_0" departPos="5.10" departSpeed="0.00" departDelay="2.00" arrival="147.00" arrivalLane="gneE24_0" arrivalPos="85.60" arrivalSpeed="12.77" duration="135.00" routeLength="669.65" waitingTime="56.00" waitingCount="3" stopTime="0.00" timeLoss="81.45" rerouteNo="0" devices="tripinfo_10" vType="DEFAULT_VEHTYPE" speedFactor="0.94" vaporized=""/>
    <tripinfo id="127" depart="137.00" departLane="gneE9_0" departPos="5.10" departSpeed="0.00" departDelay="10.00" arrival="147.00" arrivalLane="gneE9_0" arrivalPos="89.60" arrivalSpeed="12.09" duration="10.00" routeLength="84.50" waitingTime="0.00" waitingCount="0" stopTime="0.00" timeLoss="2.91" rerouteNo="0" devices="tripinfo_127" vType="DEFAULT_VEHTYPE" speedFactor="0.91" vaporized=""/>
</tripinfos>
